    1C
    1UUSER                                                              
    1UDATE              30.april.2020                                   
    1UTIME              00:10:58                                        
    1UHOST                                                              
    1UPGM               CalculiX                                        
    1UVERSION           Version 2.16                             
    1UCOMPILETIME       Mo 25. Nov 18:56:47 CET 2019                    
    1UDIR                                                               
    1UDBN                                                               
    1UMAT    1ALUMINIO                                                  
    2C                           201                                     1
 -1         1 0.00000E+00 0.00000E+00 0.00000E+00
 -1         2 1.00000E-03 0.00000E+00 0.00000E+00
 -1         3 2.00000E-03 0.00000E+00 0.00000E+00
 -1         4 3.00000E-03 0.00000E+00 0.00000E+00
 -1         5 4.00000E-03 0.00000E+00 0.00000E+00
 -1         6 5.00000E-03 0.00000E+00 0.00000E+00
 -1         7 6.00000E-03 0.00000E+00 0.00000E+00
 -1         8 7.00000E-03 0.00000E+00 0.00000E+00
 -1         9 8.00000E-03 0.00000E+00 0.00000E+00
 -1        10 9.00000E-03 0.00000E+00 0.00000E+00
 -1        11 1.00000E-02 0.00000E+00 0.00000E+00
 -1        12 1.10000E-02 0.00000E+00 0.00000E+00
 -1        13 1.20000E-02 0.00000E+00 0.00000E+00
 -1        14 1.30000E-02 0.00000E+00 0.00000E+00
 -1        15 1.40000E-02 0.00000E+00 0.00000E+00
 -1        16 1.50000E-02 0.00000E+00 0.00000E+00
 -1        17 1.60000E-02 0.00000E+00 0.00000E+00
 -1        18 1.70000E-02 0.00000E+00 0.00000E+00
 -1        19 1.80000E-02 0.00000E+00 0.00000E+00
 -1        20 1.90000E-02 0.00000E+00 0.00000E+00
 -1        21 2.00000E-02 0.00000E+00 0.00000E+00
 -1        22 2.10000E-02 0.00000E+00 0.00000E+00
 -1        23 2.20000E-02 0.00000E+00 0.00000E+00
 -1        24 2.30000E-02 0.00000E+00 0.00000E+00
 -1        25 2.40000E-02 0.00000E+00 0.00000E+00
 -1        26 2.50000E-02 0.00000E+00 0.00000E+00
 -1        27 2.60000E-02 0.00000E+00 0.00000E+00
 -1        28 2.70000E-02 0.00000E+00 0.00000E+00
 -1        29 2.80000E-02 0.00000E+00 0.00000E+00
 -1        30 2.90000E-02 0.00000E+00 0.00000E+00
 -1        31 3.00000E-02 0.00000E+00 0.00000E+00
 -1        32 3.10000E-02 0.00000E+00 0.00000E+00
 -1        33 3.20000E-02 0.00000E+00 0.00000E+00
 -1        34 3.30000E-02 0.00000E+00 0.00000E+00
 -1        35 3.40000E-02 0.00000E+00 0.00000E+00
 -1        36 3.50000E-02 0.00000E+00 0.00000E+00
 -1        37 3.60000E-02 0.00000E+00 0.00000E+00
 -1        38 3.70000E-02 0.00000E+00 0.00000E+00
 -1        39 3.80000E-02 0.00000E+00 0.00000E+00
 -1        40 3.90000E-02 0.00000E+00 0.00000E+00
 -1        41 4.00000E-02 0.00000E+00 0.00000E+00
 -1        42 4.10000E-02 0.00000E+00 0.00000E+00
 -1        43 4.20000E-02 0.00000E+00 0.00000E+00
 -1        44 4.30000E-02 0.00000E+00 0.00000E+00
 -1        45 4.40000E-02 0.00000E+00 0.00000E+00
 -1        46 4.50000E-02 0.00000E+00 0.00000E+00
 -1        47 4.60000E-02 0.00000E+00 0.00000E+00
 -1        48 4.70000E-02 0.00000E+00 0.00000E+00
 -1        49 4.80000E-02 0.00000E+00 0.00000E+00
 -1        50 4.90000E-02 0.00000E+00 0.00000E+00
 -1        51 5.00000E-02 0.00000E+00 0.00000E+00
 -1        52 5.10000E-02 0.00000E+00 0.00000E+00
 -1        53 5.20000E-02 0.00000E+00 0.00000E+00
 -1        54 5.30000E-02 0.00000E+00 0.00000E+00
 -1        55 5.40000E-02 0.00000E+00 0.00000E+00
 -1        56 5.50000E-02 0.00000E+00 0.00000E+00
 -1        57 5.60000E-02 0.00000E+00 0.00000E+00
 -1        58 5.70000E-02 0.00000E+00 0.00000E+00
 -1        59 5.80000E-02 0.00000E+00 0.00000E+00
 -1        60 5.90000E-02 0.00000E+00 0.00000E+00
 -1        61 6.00000E-02 0.00000E+00 0.00000E+00
 -1        62 6.10000E-02 0.00000E+00 0.00000E+00
 -1        63 6.20000E-02 0.00000E+00 0.00000E+00
 -1        64 6.30000E-02 0.00000E+00 0.00000E+00
 -1        65 6.40000E-02 0.00000E+00 0.00000E+00
 -1        66 6.50000E-02 0.00000E+00 0.00000E+00
 -1        67 6.60000E-02 0.00000E+00 0.00000E+00
 -1        68 6.70000E-02 0.00000E+00 0.00000E+00
 -1        69 6.80000E-02 0.00000E+00 0.00000E+00
 -1        70 6.90000E-02 0.00000E+00 0.00000E+00
 -1        71 7.00000E-02 0.00000E+00 0.00000E+00
 -1        72 7.10000E-02 0.00000E+00 0.00000E+00
 -1        73 7.20000E-02 0.00000E+00 0.00000E+00
 -1        74 7.30000E-02 0.00000E+00 0.00000E+00
 -1        75 7.40000E-02 0.00000E+00 0.00000E+00
 -1        76 7.50000E-02 0.00000E+00 0.00000E+00
 -1        77 7.60000E-02 0.00000E+00 0.00000E+00
 -1        78 7.70000E-02 0.00000E+00 0.00000E+00
 -1        79 7.80000E-02 0.00000E+00 0.00000E+00
 -1        80 7.90000E-02 0.00000E+00 0.00000E+00
 -1        81 8.00000E-02 0.00000E+00 0.00000E+00
 -1        82 8.10000E-02 0.00000E+00 0.00000E+00
 -1        83 8.20000E-02 0.00000E+00 0.00000E+00
 -1        84 8.30000E-02 0.00000E+00 0.00000E+00
 -1        85 8.40000E-02 0.00000E+00 0.00000E+00
 -1        86 8.50000E-02 0.00000E+00 0.00000E+00
 -1        87 8.60000E-02 0.00000E+00 0.00000E+00
 -1        88 8.70000E-02 0.00000E+00 0.00000E+00
 -1        89 8.80000E-02 0.00000E+00 0.00000E+00
 -1        90 8.90000E-02 0.00000E+00 0.00000E+00
 -1        91 9.00000E-02 0.00000E+00 0.00000E+00
 -1        92 9.10000E-02 0.00000E+00 0.00000E+00
 -1        93 9.20000E-02 0.00000E+00 0.00000E+00
 -1        94 9.30000E-02 0.00000E+00 0.00000E+00
 -1        95 9.40000E-02 0.00000E+00 0.00000E+00
 -1        96 9.50000E-02 0.00000E+00 0.00000E+00
 -1        97 9.60000E-02 0.00000E+00 0.00000E+00
 -1        98 9.70000E-02 0.00000E+00 0.00000E+00
 -1        99 9.80000E-02 0.00000E+00 0.00000E+00
 -1       100 9.90000E-02 0.00000E+00 0.00000E+00
 -1       101 1.00000E-01 0.00000E+00 0.00000E+00
 -1       102 1.01000E-01 0.00000E+00 0.00000E+00
 -1       103 1.02000E-01 0.00000E+00 0.00000E+00
 -1       104 1.03000E-01 0.00000E+00 0.00000E+00
 -1       105 1.04000E-01 0.00000E+00 0.00000E+00
 -1       106 1.05000E-01 0.00000E+00 0.00000E+00
 -1       107 1.06000E-01 0.00000E+00 0.00000E+00
 -1       108 1.07000E-01 0.00000E+00 0.00000E+00
 -1       109 1.08000E-01 0.00000E+00 0.00000E+00
 -1       110 1.09000E-01 0.00000E+00 0.00000E+00
 -1       111 1.10000E-01 0.00000E+00 0.00000E+00
 -1       112 1.11000E-01 0.00000E+00 0.00000E+00
 -1       113 1.12000E-01 0.00000E+00 0.00000E+00
 -1       114 1.13000E-01 0.00000E+00 0.00000E+00
 -1       115 1.14000E-01 0.00000E+00 0.00000E+00
 -1       116 1.15000E-01 0.00000E+00 0.00000E+00
 -1       117 1.16000E-01 0.00000E+00 0.00000E+00
 -1       118 1.17000E-01 0.00000E+00 0.00000E+00
 -1       119 1.18000E-01 0.00000E+00 0.00000E+00
 -1       120 1.19000E-01 0.00000E+00 0.00000E+00
 -1       121 1.20000E-01 0.00000E+00 0.00000E+00
 -1       122 1.21000E-01 0.00000E+00 0.00000E+00
 -1       123 1.22000E-01 0.00000E+00 0.00000E+00
 -1       124 1.23000E-01 0.00000E+00 0.00000E+00
 -1       125 1.24000E-01 0.00000E+00 0.00000E+00
 -1       126 1.25000E-01 0.00000E+00 0.00000E+00
 -1       127 1.26000E-01 0.00000E+00 0.00000E+00
 -1       128 1.27000E-01 0.00000E+00 0.00000E+00
 -1       129 1.28000E-01 0.00000E+00 0.00000E+00
 -1       130 1.29000E-01 0.00000E+00 0.00000E+00
 -1       131 1.30000E-01 0.00000E+00 0.00000E+00
 -1       132 1.31000E-01 0.00000E+00 0.00000E+00
 -1       133 1.32000E-01 0.00000E+00 0.00000E+00
 -1       134 1.33000E-01 0.00000E+00 0.00000E+00
 -1       135 1.34000E-01 0.00000E+00 0.00000E+00
 -1       136 1.35000E-01 0.00000E+00 0.00000E+00
 -1       137 1.36000E-01 0.00000E+00 0.00000E+00
 -1       138 1.37000E-01 0.00000E+00 0.00000E+00
 -1       139 1.38000E-01 0.00000E+00 0.00000E+00
 -1       140 1.39000E-01 0.00000E+00 0.00000E+00
 -1       141 1.40000E-01 0.00000E+00 0.00000E+00
 -1       142 1.41000E-01 0.00000E+00 0.00000E+00
 -1       143 1.42000E-01 0.00000E+00 0.00000E+00
 -1       144 1.43000E-01 0.00000E+00 0.00000E+00
 -1       145 1.44000E-01 0.00000E+00 0.00000E+00
 -1       146 1.45000E-01 0.00000E+00 0.00000E+00
 -1       147 1.46000E-01 0.00000E+00 0.00000E+00
 -1       148 1.47000E-01 0.00000E+00 0.00000E+00
 -1       149 1.48000E-01 0.00000E+00 0.00000E+00
 -1       150 1.49000E-01 0.00000E+00 0.00000E+00
 -1       151 1.50000E-01 0.00000E+00 0.00000E+00
 -1       152 1.51000E-01 0.00000E+00 0.00000E+00
 -1       153 1.52000E-01 0.00000E+00 0.00000E+00
 -1       154 1.53000E-01 0.00000E+00 0.00000E+00
 -1       155 1.54000E-01 0.00000E+00 0.00000E+00
 -1       156 1.55000E-01 0.00000E+00 0.00000E+00
 -1       157 1.56000E-01 0.00000E+00 0.00000E+00
 -1       158 1.57000E-01 0.00000E+00 0.00000E+00
 -1       159 1.58000E-01 0.00000E+00 0.00000E+00
 -1       160 1.59000E-01 0.00000E+00 0.00000E+00
 -1       161 1.60000E-01 0.00000E+00 0.00000E+00
 -1       162 1.61000E-01 0.00000E+00 0.00000E+00
 -1       163 1.62000E-01 0.00000E+00 0.00000E+00
 -1       164 1.63000E-01 0.00000E+00 0.00000E+00
 -1       165 1.64000E-01 0.00000E+00 0.00000E+00
 -1       166 1.65000E-01 0.00000E+00 0.00000E+00
 -1       167 1.66000E-01 0.00000E+00 0.00000E+00
 -1       168 1.67000E-01 0.00000E+00 0.00000E+00
 -1       169 1.68000E-01 0.00000E+00 0.00000E+00
 -1       170 1.69000E-01 0.00000E+00 0.00000E+00
 -1       171 1.70000E-01 0.00000E+00 0.00000E+00
 -1       172 1.71000E-01 0.00000E+00 0.00000E+00
 -1       173 1.72000E-01 0.00000E+00 0.00000E+00
 -1       174 1.73000E-01 0.00000E+00 0.00000E+00
 -1       175 1.74000E-01 0.00000E+00 0.00000E+00
 -1       176 1.75000E-01 0.00000E+00 0.00000E+00
 -1       177 1.76000E-01 0.00000E+00 0.00000E+00
 -1       178 1.77000E-01 0.00000E+00 0.00000E+00
 -1       179 1.78000E-01 0.00000E+00 0.00000E+00
 -1       180 1.79000E-01 0.00000E+00 0.00000E+00
 -1       181 1.80000E-01 0.00000E+00 0.00000E+00
 -1       182 1.81000E-01 0.00000E+00 0.00000E+00
 -1       183 1.82000E-01 0.00000E+00 0.00000E+00
 -1       184 1.83000E-01 0.00000E+00 0.00000E+00
 -1       185 1.84000E-01 0.00000E+00 0.00000E+00
 -1       186 1.85000E-01 0.00000E+00 0.00000E+00
 -1       187 1.86000E-01 0.00000E+00 0.00000E+00
 -1       188 1.87000E-01 0.00000E+00 0.00000E+00
 -1       189 1.88000E-01 0.00000E+00 0.00000E+00
 -1       190 1.89000E-01 0.00000E+00 0.00000E+00
 -1       191 1.90000E-01 0.00000E+00 0.00000E+00
 -1       192 1.91000E-01 0.00000E+00 0.00000E+00
 -1       193 1.92000E-01 0.00000E+00 0.00000E+00
 -1       194 1.93000E-01 0.00000E+00 0.00000E+00
 -1       195 1.94000E-01 0.00000E+00 0.00000E+00
 -1       196 1.95000E-01 0.00000E+00 0.00000E+00
 -1       197 1.96000E-01 0.00000E+00 0.00000E+00
 -1       198 1.97000E-01 0.00000E+00 0.00000E+00
 -1       199 1.98000E-01 0.00000E+00 0.00000E+00
 -1       200 1.99000E-01 0.00000E+00 0.00000E+00
 -1       201 2.00000E-01 0.00000E+00 0.00000E+00
 -3
    3C                           200                                     1
 -1         1   11    0    1
 -2         1         2
 -1         2   11    0    1
 -2         2         3
 -1         3   11    0    1
 -2         3         4
 -1         4   11    0    1
 -2         4         5
 -1         5   11    0    1
 -2         5         6
 -1         6   11    0    1
 -2         6         7
 -1         7   11    0    1
 -2         7         8
 -1         8   11    0    1
 -2         8         9
 -1         9   11    0    1
 -2         9        10
 -1        10   11    0    1
 -2        10        11
 -1        11   11    0    1
 -2        11        12
 -1        12   11    0    1
 -2        12        13
 -1        13   11    0    1
 -2        13        14
 -1        14   11    0    1
 -2        14        15
 -1        15   11    0    1
 -2        15        16
 -1        16   11    0    1
 -2        16        17
 -1        17   11    0    1
 -2        17        18
 -1        18   11    0    1
 -2        18        19
 -1        19   11    0    1
 -2        19        20
 -1        20   11    0    1
 -2        20        21
 -1        21   11    0    1
 -2        21        22
 -1        22   11    0    1
 -2        22        23
 -1        23   11    0    1
 -2        23        24
 -1        24   11    0    1
 -2        24        25
 -1        25   11    0    1
 -2        25        26
 -1        26   11    0    1
 -2        26        27
 -1        27   11    0    1
 -2        27        28
 -1        28   11    0    1
 -2        28        29
 -1        29   11    0    1
 -2        29        30
 -1        30   11    0    1
 -2        30        31
 -1        31   11    0    1
 -2        31        32
 -1        32   11    0    1
 -2        32        33
 -1        33   11    0    1
 -2        33        34
 -1        34   11    0    1
 -2        34        35
 -1        35   11    0    1
 -2        35        36
 -1        36   11    0    1
 -2        36        37
 -1        37   11    0    1
 -2        37        38
 -1        38   11    0    1
 -2        38        39
 -1        39   11    0    1
 -2        39        40
 -1        40   11    0    1
 -2        40        41
 -1        41   11    0    1
 -2        41        42
 -1        42   11    0    1
 -2        42        43
 -1        43   11    0    1
 -2        43        44
 -1        44   11    0    1
 -2        44        45
 -1        45   11    0    1
 -2        45        46
 -1        46   11    0    1
 -2        46        47
 -1        47   11    0    1
 -2        47        48
 -1        48   11    0    1
 -2        48        49
 -1        49   11    0    1
 -2        49        50
 -1        50   11    0    1
 -2        50        51
 -1        51   11    0    1
 -2        51        52
 -1        52   11    0    1
 -2        52        53
 -1        53   11    0    1
 -2        53        54
 -1        54   11    0    1
 -2        54        55
 -1        55   11    0    1
 -2        55        56
 -1        56   11    0    1
 -2        56        57
 -1        57   11    0    1
 -2        57        58
 -1        58   11    0    1
 -2        58        59
 -1        59   11    0    1
 -2        59        60
 -1        60   11    0    1
 -2        60        61
 -1        61   11    0    1
 -2        61        62
 -1        62   11    0    1
 -2        62        63
 -1        63   11    0    1
 -2        63        64
 -1        64   11    0    1
 -2        64        65
 -1        65   11    0    1
 -2        65        66
 -1        66   11    0    1
 -2        66        67
 -1        67   11    0    1
 -2        67        68
 -1        68   11    0    1
 -2        68        69
 -1        69   11    0    1
 -2        69        70
 -1        70   11    0    1
 -2        70        71
 -1        71   11    0    1
 -2        71        72
 -1        72   11    0    1
 -2        72        73
 -1        73   11    0    1
 -2        73        74
 -1        74   11    0    1
 -2        74        75
 -1        75   11    0    1
 -2        75        76
 -1        76   11    0    1
 -2        76        77
 -1        77   11    0    1
 -2        77        78
 -1        78   11    0    1
 -2        78        79
 -1        79   11    0    1
 -2        79        80
 -1        80   11    0    1
 -2        80        81
 -1        81   11    0    1
 -2        81        82
 -1        82   11    0    1
 -2        82        83
 -1        83   11    0    1
 -2        83        84
 -1        84   11    0    1
 -2        84        85
 -1        85   11    0    1
 -2        85        86
 -1        86   11    0    1
 -2        86        87
 -1        87   11    0    1
 -2        87        88
 -1        88   11    0    1
 -2        88        89
 -1        89   11    0    1
 -2        89        90
 -1        90   11    0    1
 -2        90        91
 -1        91   11    0    1
 -2        91        92
 -1        92   11    0    1
 -2        92        93
 -1        93   11    0    1
 -2        93        94
 -1        94   11    0    1
 -2        94        95
 -1        95   11    0    1
 -2        95        96
 -1        96   11    0    1
 -2        96        97
 -1        97   11    0    1
 -2        97        98
 -1        98   11    0    1
 -2        98        99
 -1        99   11    0    1
 -2        99       100
 -1       100   11    0    1
 -2       100       101
 -1       101   11    0    1
 -2       101       102
 -1       102   11    0    1
 -2       102       103
 -1       103   11    0    1
 -2       103       104
 -1       104   11    0    1
 -2       104       105
 -1       105   11    0    1
 -2       105       106
 -1       106   11    0    1
 -2       106       107
 -1       107   11    0    1
 -2       107       108
 -1       108   11    0    1
 -2       108       109
 -1       109   11    0    1
 -2       109       110
 -1       110   11    0    1
 -2       110       111
 -1       111   11    0    1
 -2       111       112
 -1       112   11    0    1
 -2       112       113
 -1       113   11    0    1
 -2       113       114
 -1       114   11    0    1
 -2       114       115
 -1       115   11    0    1
 -2       115       116
 -1       116   11    0    1
 -2       116       117
 -1       117   11    0    1
 -2       117       118
 -1       118   11    0    1
 -2       118       119
 -1       119   11    0    1
 -2       119       120
 -1       120   11    0    1
 -2       120       121
 -1       121   11    0    1
 -2       121       122
 -1       122   11    0    1
 -2       122       123
 -1       123   11    0    1
 -2       123       124
 -1       124   11    0    1
 -2       124       125
 -1       125   11    0    1
 -2       125       126
 -1       126   11    0    1
 -2       126       127
 -1       127   11    0    1
 -2       127       128
 -1       128   11    0    1
 -2       128       129
 -1       129   11    0    1
 -2       129       130
 -1       130   11    0    1
 -2       130       131
 -1       131   11    0    1
 -2       131       132
 -1       132   11    0    1
 -2       132       133
 -1       133   11    0    1
 -2       133       134
 -1       134   11    0    1
 -2       134       135
 -1       135   11    0    1
 -2       135       136
 -1       136   11    0    1
 -2       136       137
 -1       137   11    0    1
 -2       137       138
 -1       138   11    0    1
 -2       138       139
 -1       139   11    0    1
 -2       139       140
 -1       140   11    0    1
 -2       140       141
 -1       141   11    0    1
 -2       141       142
 -1       142   11    0    1
 -2       142       143
 -1       143   11    0    1
 -2       143       144
 -1       144   11    0    1
 -2       144       145
 -1       145   11    0    1
 -2       145       146
 -1       146   11    0    1
 -2       146       147
 -1       147   11    0    1
 -2       147       148
 -1       148   11    0    1
 -2       148       149
 -1       149   11    0    1
 -2       149       150
 -1       150   11    0    1
 -2       150       151
 -1       151   11    0    1
 -2       151       152
 -1       152   11    0    1
 -2       152       153
 -1       153   11    0    1
 -2       153       154
 -1       154   11    0    1
 -2       154       155
 -1       155   11    0    1
 -2       155       156
 -1       156   11    0    1
 -2       156       157
 -1       157   11    0    1
 -2       157       158
 -1       158   11    0    1
 -2       158       159
 -1       159   11    0    1
 -2       159       160
 -1       160   11    0    1
 -2       160       161
 -1       161   11    0    1
 -2       161       162
 -1       162   11    0    1
 -2       162       163
 -1       163   11    0    1
 -2       163       164
 -1       164   11    0    1
 -2       164       165
 -1       165   11    0    1
 -2       165       166
 -1       166   11    0    1
 -2       166       167
 -1       167   11    0    1
 -2       167       168
 -1       168   11    0    1
 -2       168       169
 -1       169   11    0    1
 -2       169       170
 -1       170   11    0    1
 -2       170       171
 -1       171   11    0    1
 -2       171       172
 -1       172   11    0    1
 -2       172       173
 -1       173   11    0    1
 -2       173       174
 -1       174   11    0    1
 -2       174       175
 -1       175   11    0    1
 -2       175       176
 -1       176   11    0    1
 -2       176       177
 -1       177   11    0    1
 -2       177       178
 -1       178   11    0    1
 -2       178       179
 -1       179   11    0    1
 -2       179       180
 -1       180   11    0    1
 -2       180       181
 -1       181   11    0    1
 -2       181       182
 -1       182   11    0    1
 -2       182       183
 -1       183   11    0    1
 -2       183       184
 -1       184   11    0    1
 -2       184       185
 -1       185   11    0    1
 -2       185       186
 -1       186   11    0    1
 -2       186       187
 -1       187   11    0    1
 -2       187       188
 -1       188   11    0    1
 -2       188       189
 -1       189   11    0    1
 -2       189       190
 -1       190   11    0    1
 -2       190       191
 -1       191   11    0    1
 -2       191       192
 -1       192   11    0    1
 -2       192       193
 -1       193   11    0    1
 -2       193       194
 -1       194   11    0    1
 -2       194       195
 -1       195   11    0    1
 -2       195       196
 -1       196   11    0    1
 -2       196       197
 -1       197   11    0    1
 -2       197       198
 -1       198   11    0    1
 -2       198       199
 -1       199   11    0    1
 -2       199       200
 -1       200   11    0    1
 -2       200       201
 -3
    1PSTEP                         1           1           1          
    1PGM                1.000000E+00                                  
    1PGK                5.673844E+00                                  
    1PHID                         -1                                  
    1PSUBC                         0                                  
    1PMODE                         1                                  
  100CL  101 3.79104E-01         201                     2    1MODAL      1
 -4  DISP        4    1
 -5  D1          1    2    1    0
 -5  D2          1    2    2    0
 -5  D3          1    2    3    0
 -5  ALL         1    2    0    0    1ALL
 -1         1-4.13590E-25 0.00000E+00 1.16359E-24
 -1         2-7.10012E-16-6.34800E-17 5.04253E-06
 -1         3-1.15348E-15-1.30538E-16 2.01486E-05
 -1         4-1.52730E-15-1.95427E-16 4.52768E-05
 -1         5-2.51790E-15-2.59395E-16 8.03860E-05
 -1         6-2.92739E-15-3.19569E-16 1.25435E-04
 -1         7-3.25659E-15-3.81693E-16 1.80383E-04
 -1         8-3.94280E-15-4.36500E-16 2.45190E-04
 -1         9-4.12413E-15-4.93529E-16 3.19816E-04
 -1        10-4.60129E-15-5.51696E-16 4.04219E-04
 -1        11-5.16720E-15-6.09105E-16 4.98360E-04
 -1        12-5.53731E-15-6.68194E-16 6.02200E-04
 -1        13-6.05325E-15-7.36986E-16 7.15698E-04
 -1        14-6.66966E-15-8.03069E-16 8.38816E-04
 -1        15-7.20118E-15-8.68121E-16 9.71514E-04
 -1        16-7.79429E-15-9.33335E-16 1.11375E-03
 -1        17-8.32313E-15-9.98225E-16 1.26549E-03
 -1        18-8.71942E-15-1.06908E-15 1.42670E-03
 -1        19-9.51212E-15-1.14145E-15 1.59733E-03
 -1        20-9.94200E-15-1.21615E-15 1.77735E-03
 -1        21-1.05816E-14-1.29465E-15 1.96672E-03
 -1        22-1.12965E-14-1.37574E-15 2.16540E-03
 -1        23-1.16815E-14-1.46015E-15 2.37335E-03
 -1        24-1.22762E-14-1.54455E-15 2.59054E-03
 -1        25-1.29112E-14-1.61904E-15 2.81693E-03
 -1        26-1.36892E-14-1.69548E-15 3.05248E-03
 -1        27-1.41814E-14-1.77126E-15 3.29716E-03
 -1        28-1.47108E-14-1.84542E-15 3.55093E-03
 -1        29-1.52258E-14-1.92386E-15 3.81375E-03
 -1        30-1.57725E-14-2.00176E-15 4.08559E-03
 -1        31-1.64285E-14-2.07706E-15 4.36641E-03
 -1        32-1.65193E-14-2.15718E-15 4.65617E-03
 -1        33-1.68457E-14-2.24213E-15 4.95484E-03
 -1        34-1.74734E-14-2.32697E-15 5.26239E-03
 -1        35-1.81710E-14-2.41284E-15 5.57878E-03
 -1        36-1.86618E-14-2.49909E-15 5.90397E-03
 -1        37-1.91461E-14-2.59130E-15 6.23793E-03
 -1        38-1.98932E-14-2.68839E-15 6.58063E-03
 -1        39-2.03746E-14-2.78705E-15 6.93202E-03
 -1        40-2.07841E-14-2.89281E-15 7.29208E-03
 -1        41-2.11419E-14-3.00254E-15 7.66078E-03
 -1        42-2.18150E-14-3.11795E-15 8.03807E-03
 -1        43-2.22212E-14-3.22854E-15 8.42393E-03
 -1        44-2.25466E-14-3.34536E-15 8.81833E-03
 -1        45-2.30690E-14-3.46245E-15 9.22122E-03
 -1        46-2.32249E-14-3.58014E-15 9.63258E-03
 -1        47-2.35176E-14-3.70320E-15 1.00524E-02
 -1        48-2.39957E-14-3.82902E-15 1.04806E-02
 -1        49-2.45728E-14-3.96130E-15 1.09171E-02
 -1        50-2.52963E-14-4.09292E-15 1.13620E-02
 -1        51-2.56649E-14-4.22600E-15 1.18152E-02
 -1        52-2.62612E-14-4.36874E-15 1.22767E-02
 -1        53-2.70090E-14-4.50703E-15 1.27464E-02
 -1        54-2.73574E-14-4.64499E-15 1.32243E-02
 -1        55-2.80033E-14-4.78925E-15 1.37104E-02
 -1        56-2.84971E-14-4.93328E-15 1.42047E-02
 -1        57-2.89000E-14-5.07884E-15 1.47071E-02
 -1        58-2.95285E-14-5.22493E-15 1.52175E-02
 -1        59-2.97639E-14-5.37168E-15 1.57360E-02
 -1        60-2.98925E-14-5.51816E-15 1.62626E-02
 -1        61-3.04613E-14-5.65964E-15 1.67971E-02
 -1        62-3.08544E-14-5.79511E-15 1.73396E-02
 -1        63-3.14272E-14-5.92500E-15 1.78901E-02
 -1        64-3.21333E-14-6.05641E-15 1.84484E-02
 -1        65-3.25593E-14-6.18825E-15 1.90146E-02
 -1        66-3.31145E-14-6.31824E-15 1.95887E-02
 -1        67-3.37380E-14-6.45263E-15 2.01706E-02
 -1        68-3.40621E-14-6.58360E-15 2.07603E-02
 -1        69-3.47942E-14-6.71604E-15 2.13578E-02
 -1        70-3.55171E-14-6.84668E-15 2.19630E-02
 -1        71-3.58703E-14-6.98085E-15 2.25759E-02
 -1        72-3.65925E-14-7.11605E-15 2.31965E-02
 -1        73-3.71137E-14-7.24963E-15 2.38247E-02
 -1        74-3.76825E-14-7.38683E-15 2.44606E-02
 -1        75-3.81035E-14-7.51938E-15 2.51041E-02
 -1        76-3.87660E-14-7.65262E-15 2.57551E-02
 -1        77-3.92990E-14-7.79119E-15 2.64137E-02
 -1        78-3.95267E-14-7.92400E-15 2.70798E-02
 -1        79-3.98412E-14-8.06294E-15 2.77534E-02
 -1        80-3.99271E-14-8.20513E-15 2.84345E-02
 -1        81-4.04114E-14-8.35042E-15 2.91230E-02
 -1        82-4.09040E-14-8.49597E-15 2.98190E-02
 -1        83-4.13838E-14-8.63719E-15 3.05223E-02
 -1        84-4.19202E-14-8.77916E-15 3.12330E-02
 -1        85-4.22698E-14-8.92369E-15 3.19510E-02
 -1        86-4.26349E-14-9.06794E-15 3.26764E-02
 -1        87-4.29921E-14-9.21528E-15 3.34090E-02
 -1        88-4.33635E-14-9.37141E-15 3.41490E-02
 -1        89-4.38510E-14-9.52678E-15 3.48961E-02
 -1        90-4.41785E-14-9.68442E-15 3.56505E-02
 -1        91-4.41773E-14-9.84477E-15 3.64121E-02
 -1        92-4.46100E-14-1.00060E-14 3.71808E-02
 -1        93-4.50749E-14-1.01726E-14 3.79567E-02
 -1        94-4.56030E-14-1.03409E-14 3.87397E-02
 -1        95-4.59565E-14-1.05120E-14 3.95299E-02
 -1        96-4.63923E-14-1.06848E-14 4.03271E-02
 -1        97-4.71515E-14-1.08617E-14 4.11313E-02
 -1        98-4.74114E-14-1.10383E-14 4.19426E-02
 -1        99-4.82110E-14-1.12207E-14 4.27609E-02
 -1       100-4.87193E-14-1.14085E-14 4.35863E-02
 -1       101-4.92827E-14-1.16022E-14 4.44185E-02
 -1       102-5.01177E-14-1.17912E-14 4.52578E-02
 -1       103-5.05673E-14-1.19832E-14 4.61039E-02
 -1       104-5.11966E-14-1.21795E-14 4.69570E-02
 -1       105-5.15895E-14-1.23747E-14 4.78169E-02
 -1       106-5.19464E-14-1.25712E-14 4.86837E-02
 -1       107-5.23805E-14-1.27739E-14 4.95574E-02
 -1       108-5.30056E-14-1.29820E-14 5.04379E-02
 -1       109-5.36473E-14-1.31921E-14 5.13252E-02
 -1       110-5.39520E-14-1.34092E-14 5.22192E-02
 -1       111-5.41152E-14-1.36286E-14 5.31201E-02
 -1       112-5.46180E-14-1.38485E-14 5.40276E-02
 -1       113-5.50141E-14-1.40742E-14 5.49420E-02
 -1       114-5.54393E-14-1.43001E-14 5.58630E-02
 -1       115-5.58090E-14-1.45250E-14 5.67907E-02
 -1       116-5.59821E-14-1.47551E-14 5.77251E-02
 -1       117-5.59508E-14-1.49918E-14 5.86661E-02
 -1       118-5.61572E-14-1.52322E-14 5.96137E-02
 -1       119-5.67766E-14-1.54729E-14 6.05680E-02
 -1       120-5.72163E-14-1.57168E-14 6.15289E-02
 -1       121-5.77679E-14-1.59589E-14 6.24964E-02
 -1       122-5.79991E-14-1.62066E-14 6.34704E-02
 -1       123-5.83747E-14-1.64527E-14 6.44509E-02
 -1       124-5.90308E-14-1.66940E-14 6.54380E-02
 -1       125-5.92747E-14-1.69388E-14 6.64317E-02
 -1       126-5.96429E-14-1.71779E-14 6.74318E-02
 -1       127-6.02293E-14-1.74188E-14 6.84384E-02
 -1       128-6.05273E-14-1.76627E-14 6.94514E-02
 -1       129-6.08526E-14-1.79046E-14 7.04709E-02
 -1       130-6.13743E-14-1.81452E-14 7.14968E-02
 -1       131-6.15411E-14-1.83892E-14 7.25292E-02
 -1       132-6.17657E-14-1.86327E-14 7.35679E-02
 -1       133-6.23267E-14-1.88767E-14 7.46131E-02
 -1       134-6.25295E-14-1.91177E-14 7.56646E-02
 -1       135-6.28430E-14-1.93594E-14 7.67225E-02
 -1       136-6.29826E-14-1.96025E-14 7.77867E-02
 -1       137-6.31373E-14-1.98423E-14 7.88572E-02
 -1       138-6.34257E-14-2.00818E-14 7.99341E-02
 -1       139-6.35093E-14-2.03220E-14 8.10173E-02
 -1       140-6.37542E-14-2.05634E-14 8.21067E-02
 -1       141-6.39339E-14-2.08042E-14 8.32025E-02
 -1       142-6.41602E-14-2.10468E-14 8.43044E-02
 -1       143-6.45476E-14-2.12847E-14 8.54127E-02
 -1       144-6.50251E-14-2.15242E-14 8.65272E-02
 -1       145-6.51679E-14-2.17648E-14 8.76479E-02
 -1       146-6.51682E-14-2.20113E-14 8.87748E-02
 -1       147-6.55340E-14-2.22625E-14 8.99079E-02
 -1       148-6.58176E-14-2.25147E-14 9.10472E-02
 -1       149-6.60835E-14-2.27681E-14 9.21927E-02
 -1       150-6.61941E-14-2.30214E-14 9.33443E-02
 -1       151-6.61942E-14-2.32756E-14 9.45021E-02
 -1       152-6.65728E-14-2.35387E-14 9.56660E-02
 -1       153-6.70008E-14-2.37974E-14 9.68361E-02
 -1       154-6.75091E-14-2.40504E-14 9.80123E-02
 -1       155-6.77383E-14-2.43050E-14 9.91946E-02